<?xml version="1.0" encoding="UTF-8"?>

<!-- generated on 2025-01-07 09:11:20 by Eclipse SUMO sumo Version 1.21.0
<sumoConfiguration xmlns:xsi="http://www.w3.org/2001/XMLSchema-instance" xsi:noNamespaceSchemaLocation="http://sumo.dlr.de/xsd/sumoConfiguration.xsd">

    <input>
        <net-file value="./sumo_data/road.net.xml"/>
        <route-files value="./sumo_data/road_Lbd0.10.rou.xml"/>
    </input>

    <output>
        <tripinfo-output value="./sumo_data/tripinfo_Lbd0.10.xml"/>
    </output>

    <time>
        <begin value="0"/>
        <step-length value="0.1"/>
    </time>

    <traci_server>
        <remote-port value="46803"/>
    </traci_server>

</sumoConfiguration>
-->

<tripinfos xmlns:xsi="http://www.w3.org/2001/XMLSchema-instance" xsi:noNamespaceSchemaLocation="http://sumo.dlr.de/xsd/tripinfo_file.xsd">
    <tripinfo id="flow4.1" depart="17.70" departLane="-E4_0" departPos="5.10" departSpeed="0.00" departDelay="0.00" arrival="65.50" arrivalLane="E5_0" arrivalPos="236.40" arrivalSpeed="13.91" duration="47.80" routeLength="476.73" waitingTime="6.80" waitingCount="1" stopTime="0.00" timeLoss="13.09" rerouteNo="0" devices="tripinfo_flow4.1" vType="typecar" speedFactor="1.01" vaporized=""/>
    <tripinfo id="flow5.1" depart="12.20" departLane="-E8_0" departPos="5.10" departSpeed="0.00" departDelay="1.80" arrival="66.80" arrivalLane="E9_2" arrivalPos="236.40" arrivalSpeed="13.67" duration="54.60" routeLength="492.21" waitingTime="11.90" waitingCount="1" stopTime="0.00" timeLoss="18.19" rerouteNo="0" devices="tripinfo_flow5.1" vType="typecar" speedFactor="0.99" vaporized=""/>
    <tripinfo id="flow8.3" depart="33.10" departLane="-E11_0" departPos="5.10" departSpeed="0.00" departDelay="0.00" arrival="67.80" arrivalLane="E10_0" arrivalPos="236.40" arrivalSpeed="16.33" duration="34.70" routeLength="476.73" waitingTime="0.00" waitingCount="0" stopTime="0.00" timeLoss="4.92" rerouteNo="0" devices="tripinfo_flow8.3" vType="typecar" speedFactor="1.18" vaporized=""/>
    <tripinfo id="flow5.2" depart="16.50" departLane="-E8_0" departPos="5.10" departSpeed="0.00" departDelay="0.00" arrival="68.10" arrivalLane="E9_2" arrivalPos="236.40" arrivalSpeed="14.00" duration="51.60" routeLength="492.21" waitingTime="5.00" waitingCount="1" stopTime="0.00" timeLoss="16.22" rerouteNo="0" devices="tripinfo_flow5.2" vType="typecar" speedFactor="1.02" vaporized=""/>
    <tripinfo id="flow3.0" depart="0.10" departLane="-E5_0" departPos="5.10" departSpeed="0.00" departDelay="0.00" arrival="74.30" arrivalLane="-E2_0" arrivalPos="236.40" arrivalSpeed="14.23" duration="74.20" routeLength="958.56" waitingTime="0.00" waitingCount="0" stopTime="0.00" timeLoss="5.78" rerouteNo="0" devices="tripinfo_flow3.0" vType="typecar" speedFactor="1.03" vaporized=""/>
    <tripinfo id="flow5.3" depart="36.10" departLane="-E8_0" departPos="5.10" departSpeed="0.00" departDelay="0.00" arrival="76.10" arrivalLane="E9_2" arrivalPos="236.40" arrivalSpeed="13.80" duration="40.00" routeLength="492.21" waitingTime="0.00" waitingCount="0" stopTime="0.00" timeLoss="3.71" rerouteNo="0" devices="tripinfo_flow5.3" vType="typecar" speedFactor="0.99" vaporized=""/>
    <tripinfo id="flow7.0" depart="9.90" departLane="-E10_0" departPos="5.10" departSpeed="0.00" departDelay="0.00" arrival="79.80" arrivalLane="E8_0" arrivalPos="236.40" arrivalSpeed="15.10" duration="69.90" routeLength="976.73" waitingTime="0.00" waitingCount="0" stopTime="0.00" timeLoss="4.73" rerouteNo="0" devices="tripinfo_flow7.0" vType="typecar" speedFactor="1.09" vaporized=""/>
    <tripinfo id="flow2.1" depart="3.90" departLane="E2_0" departPos="5.10" departSpeed="0.00" departDelay="1.30" arrival="82.30" arrivalLane="E5_2" arrivalPos="236.40" arrivalSpeed="14.52" duration="78.40" routeLength="989.52" waitingTime="1.30" waitingCount="1" stopTime="0.00" timeLoss="9.02" rerouteNo="0" devices="tripinfo_flow2.1" vType="typecar" speedFactor="1.05" vaporized=""/>
    <tripinfo id="flow2.3" depart="9.20" departLane="E2_0" departPos="5.10" departSpeed="0.00" departDelay="0.00" arrival="97.40" arrivalLane="E5_1" arrivalPos="236.40" arrivalSpeed="11.89" duration="88.20" routeLength="989.52" waitingTime="0.00" waitingCount="0" stopTime="0.00" timeLoss="3.65" rerouteNo="0" devices="tripinfo_flow2.3" vType="typecar" speedFactor="0.86" vaporized=""/>
    <tripinfo id="flow4.3" depart="60.50" departLane="-E4_0" departPos="5.10" departSpeed="0.00" departDelay="0.00" arrival="99.20" arrivalLane="E5_0" arrivalPos="236.40" arrivalSpeed="14.18" duration="38.70" routeLength="476.73" waitingTime="0.00" waitingCount="0" stopTime="0.00" timeLoss="4.43" rerouteNo="0" devices="tripinfo_flow4.3" vType="typecar" speedFactor="1.02" vaporized=""/>
    <tripinfo id="flow1.4" depart="33.50" departLane="E0_0" departPos="5.10" departSpeed="0.00" departDelay="0.00" arrival="99.60" arrivalLane="E4_2" arrivalPos="236.40" arrivalSpeed="15.90" duration="66.10" routeLength="994.90" waitingTime="0.00" waitingCount="0" stopTime="0.00" timeLoss="4.00" rerouteNo="0" devices="tripinfo_flow1.4" vType="typecar" speedFactor="1.15" vaporized=""/>
    <tripinfo id="flow1.6" depart="37.50" departLane="E0_0" departPos="5.10" departSpeed="0.00" departDelay="1.50" arrival="103.70" arrivalLane="E5_2" arrivalPos="236.40" arrivalSpeed="16.23" duration="66.20" routeLength="992.21" waitingTime="0.00" waitingCount="0" stopTime="0.00" timeLoss="4.69" rerouteNo="0" devices="tripinfo_flow1.6" vType="typecar" speedFactor="1.17" vaporized=""/>
    <tripinfo id="flow1.1" depart="20.90" departLane="E0_0" departPos="5.10" departSpeed="0.00" departDelay="0.00" arrival="104.50" arrivalLane="E4_0" arrivalPos="236.40" arrivalSpeed="13.42" duration="83.60" routeLength="994.90" waitingTime="2.60" waitingCount="1" stopTime="0.00" timeLoss="10.06" rerouteNo="0" devices="tripinfo_flow1.1" vType="typecar" speedFactor="0.97" vaporized=""/>
    <tripinfo id="flow6.0" depart="10.30" departLane="-E9_0" departPos="5.10" departSpeed="0.00" departDelay="0.00" arrival="109.10" arrivalLane="E4_0" arrivalPos="236.40" arrivalSpeed="15.52" duration="98.80" routeLength="976.73" waitingTime="28.00" waitingCount="1" stopTime="0.00" timeLoss="35.53" rerouteNo="0" devices="tripinfo_flow6.0" vType="typecar" speedFactor="1.12" vaporized=""/>
    <tripinfo id="flow8.4" depart="38.70" departLane="-E11_0" departPos="5.10" departSpeed="0.00" departDelay="0.00" arrival="109.60" arrivalLane="-E2_1" arrivalPos="236.40" arrivalSpeed="16.27" duration="70.90" routeLength="992.21" waitingTime="0.40" waitingCount="1" stopTime="0.00" timeLoss="9.82" rerouteNo="0" devices="tripinfo_flow8.4" vType="typecar" speedFactor="1.18" vaporized=""/>
    <tripinfo id="flow4.0" depart="14.80" departLane="-E4_0" departPos="5.10" departSpeed="0.00" departDelay="0.00" arrival="109.90" arrivalLane="E9_1" arrivalPos="236.40" arrivalSpeed="16.06" duration="95.10" routeLength="992.21" waitingTime="20.50" waitingCount="2" stopTime="0.00" timeLoss="32.87" rerouteNo="0" devices="tripinfo_flow4.0" vType="typecar" speedFactor="1.16" vaporized=""/>
    <tripinfo id="flow2.10" depart="59.80" departLane="E2_0" departPos="5.10" departSpeed="0.00" departDelay="0.00" arrival="110.30" arrivalLane="-E0_0" arrivalPos="236.40" arrivalSpeed="15.74" duration="50.50" routeLength="476.73" waitingTime="7.60" waitingCount="1" stopTime="0.00" timeLoss="19.72" rerouteNo="0" devices="tripinfo_flow2.10" vType="typecar" speedFactor="1.14" vaporized=""/>
    <tripinfo id="flow1.2" depart="27.00" departLane="E0_0" departPos="5.10" departSpeed="0.00" departDelay="0.00" arrival="111.70" arrivalLane="E11_0" arrivalPos="236.40" arrivalSpeed="15.69" duration="84.70" routeLength="958.56" waitingTime="6.00" waitingCount="1" stopTime="0.00" timeLoss="22.35" rerouteNo="0" devices="tripinfo_flow1.2" vType="typecar" speedFactor="1.13" vaporized=""/>
    <tripinfo id="flow1.3" depart="30.50" departLane="E0_0" departPos="5.10" departSpeed="0.00" departDelay="0.00" arrival="111.80" arrivalLane="E10_2" arrivalPos="236.40" arrivalSpeed="12.88" duration="81.30" routeLength="976.73" waitingTime="0.00" waitingCount="0" stopTime="0.00" timeLoss="4.96" rerouteNo="0" devices="tripinfo_flow1.3" vType="typecar" speedFactor="0.93" vaporized=""/>
    <tripinfo id="flow2.2" depart="4.50" departLane="E2_0" departPos="5.10" departSpeed="0.00" departDelay="0.00" arrival="113.00" arrivalLane="E10_0" arrivalPos="236.40" arrivalSpeed="13.00" duration="108.50" routeLength="994.90" waitingTime="25.10" waitingCount="1" stopTime="0.00" timeLoss="32.04" rerouteNo="0" devices="tripinfo_flow2.2" vType="typecar" speedFactor="0.94" vaporized=""/>
    <tripinfo id="flow2.13" depart="69.90" departLane="E2_0" departPos="5.10" departSpeed="0.00" departDelay="0.00" arrival="114.10" arrivalLane="-E0_0" arrivalPos="236.40" arrivalSpeed="13.67" duration="44.20" routeLength="476.73" waitingTime="0.00" waitingCount="0" stopTime="0.00" timeLoss="8.69" rerouteNo="0" devices="tripinfo_flow2.13" vType="typecar" speedFactor="0.99" vaporized=""/>
    <tripinfo id="flow2.4" depart="11.50" departLane="E2_0" departPos="5.10" departSpeed="0.00" departDelay="0.00" arrival="114.50" arrivalLane="E10_0" arrivalPos="236.40" arrivalSpeed="12.83" duration="103.00" routeLength="994.90" waitingTime="14.80" waitingCount="1" stopTime="0.00" timeLoss="25.66" rerouteNo="0" devices="tripinfo_flow2.4" vType="typecar" speedFactor="0.93" vaporized=""/>
    <tripinfo id="flow2.0" depart="1.90" departLane="E2_0" departPos="5.10" departSpeed="0.00" departDelay="0.00" arrival="115.40" arrivalLane="E10_0" arrivalPos="236.40" arrivalSpeed="11.52" duration="113.50" routeLength="994.90" waitingTime="20.60" waitingCount="1" stopTime="0.00" timeLoss="27.25" rerouteNo="0" devices="tripinfo_flow2.0" vType="typecar" speedFactor="0.83" vaporized=""/>
    <tripinfo id="flow3.3" depart="22.80" departLane="-E5_0" departPos="5.10" departSpeed="0.00" departDelay="0.00" arrival="115.40" arrivalLane="E4_1" arrivalPos="236.40" arrivalSpeed="11.41" duration="92.60" routeLength="492.21" waitingTime="43.60" waitingCount="1" stopTime="0.00" timeLoss="48.90" rerouteNo="0" devices="tripinfo_flow3.3" vType="typecar" speedFactor="0.83" vaporized=""/>
    <tripinfo id="flow3.1" depart="10.00" departLane="-E5_0" departPos="5.10" departSpeed="0.00" departDelay="0.00" arrival="116.10" arrivalLane="E8_2" arrivalPos="236.40" arrivalSpeed="14.22" duration="106.10" routeLength="992.21" waitingTime="26.90" waitingCount="2" stopTime="0.00" timeLoss="35.91" rerouteNo="0" devices="tripinfo_flow3.1" vType="typecar" speedFactor="1.03" vaporized=""/>
    <tripinfo id="flow6.8" depart="82.80" departLane="-E9_0" departPos="5.10" departSpeed="0.00" departDelay="1.70" arrival="120.50" arrivalLane="E8_0" arrivalPos="236.40" arrivalSpeed="14.56" duration="37.70" routeLength="476.73" waitingTime="0.00" waitingCount="0" stopTime="0.00" timeLoss="4.46" rerouteNo="0" devices="tripinfo_flow6.8" vType="typecar" speedFactor="1.06" vaporized=""/>
    <tripinfo id="flow3.11" depart="91.50" departLane="-E5_0" departPos="5.10" departSpeed="0.00" departDelay="0.00" arrival="130.30" arrivalLane="E4_2" arrivalPos="236.40" arrivalSpeed="14.32" duration="38.80" routeLength="492.21" waitingTime="0.00" waitingCount="0" stopTime="0.00" timeLoss="3.92" rerouteNo="0" devices="tripinfo_flow3.11" vType="typecar" speedFactor="1.03" vaporized=""/>
    <tripinfo id="flow6.1" depart="13.30" departLane="-E9_0" departPos="5.10" departSpeed="0.00" departDelay="0.00" arrival="133.20" arrivalLane="-E2_0" arrivalPos="236.40" arrivalSpeed="12.87" duration="119.90" routeLength="1474.04" waitingTime="0.00" waitingCount="0" stopTime="0.00" timeLoss="5.08" rerouteNo="0" devices="tripinfo_flow6.1" vType="typecar" speedFactor="0.94" vaporized=""/>
    <tripinfo id="flow5.0" depart="10.20" departLane="-E8_0" departPos="5.10" departSpeed="0.00" departDelay="0.00" arrival="137.20" arrivalLane="-E0_2" arrivalPos="236.40" arrivalSpeed="14.49" duration="127.00" routeLength="1474.04" waitingTime="14.60" waitingCount="1" stopTime="0.00" timeLoss="24.29" rerouteNo="0" devices="tripinfo_flow5.0" vType="typecar" speedFactor="1.05" vaporized=""/>
    <tripinfo id="flow3.5" depart="45.50" departLane="-E5_0" departPos="5.10" departSpeed="0.00" departDelay="0.00" arrival="145.90" arrivalLane="E9_0" arrivalPos="236.40" arrivalSpeed="14.37" duration="100.40" routeLength="994.90" waitingTime="23.80" waitingCount="1" stopTime="0.00" timeLoss="31.70" rerouteNo="0" devices="tripinfo_flow3.5" vType="typecar" speedFactor="1.04" vaporized=""/>
    <tripinfo id="flow1.0" depart="13.00" departLane="E0_0" departPos="5.10" departSpeed="0.00" departDelay="0.00" arrival="146.30" arrivalLane="E8_2" arrivalPos="236.40" arrivalSpeed="13.07" duration="133.30" routeLength="1474.04" waitingTime="10.30" waitingCount="1" stopTime="0.00" timeLoss="19.21" rerouteNo="0" devices="tripinfo_flow1.0" vType="typecar" speedFactor="0.94" vaporized=""/>
    <tripinfo id="flow6.11" depart="111.80" departLane="-E9_0" departPos="5.10" departSpeed="0.00" departDelay="0.00" arrival="149.60" arrivalLane="E8_0" arrivalPos="236.40" arrivalSpeed="14.54" duration="37.80" routeLength="476.73" waitingTime="0.00" waitingCount="0" stopTime="0.00" timeLoss="4.53" rerouteNo="0" devices="tripinfo_flow6.11" vType="typecar" speedFactor="1.06" vaporized=""/>
    <tripinfo id="flow7.10" depart="112.10" departLane="-E10_0" departPos="5.10" departSpeed="0.00" departDelay="0.00" arrival="151.60" arrivalLane="E11_2" arrivalPos="236.40" arrivalSpeed="13.93" duration="39.50" routeLength="492.21" waitingTime="0.00" waitingCount="0" stopTime="0.00" timeLoss="3.74" rerouteNo="0" devices="tripinfo_flow7.10" vType="typecar" speedFactor="1.01" vaporized=""/>
    <tripinfo id="flow3.7" depart="53.00" departLane="-E5_0" departPos="5.10" departSpeed="0.00" departDelay="0.00" arrival="154.60" arrivalLane="-E0_1" arrivalPos="236.40" arrivalSpeed="16.09" duration="101.60" routeLength="976.73" waitingTime="23.10" waitingCount="2" stopTime="0.00" timeLoss="40.84" rerouteNo="0" devices="tripinfo_flow3.7" vType="typecar" speedFactor="1.17" vaporized=""/>
    <tripinfo id="flow7.3" depart="48.80" departLane="-E10_0" departPos="5.10" departSpeed="0.00" departDelay="0.00" arrival="154.70" arrivalLane="-E0_2" arrivalPos="236.40" arrivalSpeed="12.41" duration="105.90" routeLength="992.21" waitingTime="18.90" waitingCount="1" stopTime="0.00" timeLoss="25.87" rerouteNo="0" devices="tripinfo_flow7.3" vType="typecar" speedFactor="0.90" vaporized=""/>
    <tripinfo id="flow8.6" depart="80.30" departLane="-E11_0" departPos="5.10" departSpeed="0.00" departDelay="0.00" arrival="155.40" arrivalLane="E10_0" arrivalPos="236.40" arrivalSpeed="14.10" duration="75.10" routeLength="476.73" waitingTime="34.20" waitingCount="1" stopTime="0.00" timeLoss="40.81" rerouteNo="0" devices="tripinfo_flow8.6" vType="typecar" speedFactor="1.02" vaporized=""/>
    <tripinfo id="flow7.2" depart="39.90" departLane="-E10_0" departPos="5.10" departSpeed="0.00" departDelay="0.00" arrival="155.80" arrivalLane="E9_0" arrivalPos="236.40" arrivalSpeed="15.22" duration="115.90" routeLength="958.56" waitingTime="31.20" waitingCount="2" stopTime="0.00" timeLoss="51.87" rerouteNo="0" devices="tripinfo_flow7.2" vType="typecar" speedFactor="1.10" vaporized=""/>
    <tripinfo id="flow3.6" depart="47.50" departLane="-E5_0" departPos="5.10" departSpeed="0.00" departDelay="1.00" arrival="155.90" arrivalLane="-E2_0" arrivalPos="236.40" arrivalSpeed="15.02" duration="108.40" routeLength="958.56" waitingTime="23.40" waitingCount="2" stopTime="0.00" timeLoss="43.53" rerouteNo="0" devices="tripinfo_flow3.6" vType="typecar" speedFactor="1.09" vaporized=""/>
    <tripinfo id="flow4.2" depart="40.90" departLane="-E4_0" departPos="5.10" departSpeed="0.00" departDelay="0.00" arrival="156.50" arrivalLane="-E0_0" arrivalPos="236.40" arrivalSpeed="14.22" duration="115.60" routeLength="994.90" waitingTime="38.60" waitingCount="1" stopTime="0.00" timeLoss="46.05" rerouteNo="0" devices="tripinfo_flow4.2" vType="typecar" speedFactor="1.03" vaporized=""/>
    <tripinfo id="flow7.5" depart="58.70" departLane="-E10_0" departPos="5.10" departSpeed="0.00" departDelay="0.00" arrival="156.90" arrivalLane="E8_2" arrivalPos="236.40" arrivalSpeed="13.84" duration="98.20" routeLength="976.73" waitingTime="10.70" waitingCount="2" stopTime="0.00" timeLoss="27.30" rerouteNo="0" devices="tripinfo_flow7.5" vType="typecar" speedFactor="1.00" vaporized=""/>
    <tripinfo id="flow7.1" depart="37.70" departLane="-E10_0" departPos="5.10" departSpeed="0.00" departDelay="0.00" arrival="157.50" arrivalLane="E8_0" arrivalPos="236.40" arrivalSpeed="13.40" duration="119.80" routeLength="976.73" waitingTime="35.90" waitingCount="2" stopTime="0.00" timeLoss="46.73" rerouteNo="0" devices="tripinfo_flow7.1" vType="typecar" speedFactor="0.97" vaporized=""/>
    <tripinfo id="flow8.0" depart="3.80" departLane="-E11_0" departPos="5.10" departSpeed="0.00" departDelay="0.00" arrival="159.00" arrivalLane="E4_0" arrivalPos="236.40" arrivalSpeed="12.18" duration="155.20" routeLength="1474.04" waitingTime="20.90" waitingCount="3" stopTime="0.00" timeLoss="33.87" rerouteNo="0" devices="tripinfo_flow8.0" vType="typecar" speedFactor="0.89" vaporized=""/>
    <tripinfo id="flow3.2" depart="12.20" departLane="-E5_0" departPos="5.10" departSpeed="0.00" departDelay="0.00" arrival="159.10" arrivalLane="E10_2" arrivalPos="236.40" arrivalSpeed="12.19" duration="146.90" routeLength="1474.04" waitingTime="15.60" waitingCount="2" stopTime="0.00" timeLoss="24.50" rerouteNo="0" devices="tripinfo_flow3.2" vType="typecar" speedFactor="0.88" vaporized=""/>
    <tripinfo id="flow8.1" depart="21.80" departLane="-E11_0" departPos="5.10" departSpeed="0.00" departDelay="0.00" arrival="159.10" arrivalLane="E8_0" arrivalPos="236.40" arrivalSpeed="12.32" duration="137.30" routeLength="994.90" waitingTime="46.50" waitingCount="2" stopTime="0.00" timeLoss="56.75" rerouteNo="0" devices="tripinfo_flow8.1" vType="typecar" speedFactor="0.89" vaporized=""/>
    <tripinfo id="flow1.11" depart="84.10" departLane="E0_0" departPos="5.10" departSpeed="0.00" departDelay="0.60" arrival="160.20" arrivalLane="-E2_2" arrivalPos="236.40" arrivalSpeed="14.32" duration="76.10" routeLength="492.21" waitingTime="32.40" waitingCount="2" stopTime="0.00" timeLoss="41.15" rerouteNo="0" devices="tripinfo_flow1.11" vType="typecar" speedFactor="1.03" vaporized=""/>
    <tripinfo id="flow6.2" depart="40.60" departLane="-E9_0" departPos="5.10" departSpeed="0.00" departDelay="0.00" arrival="160.50" arrivalLane="E10_2" arrivalPos="236.40" arrivalSpeed="12.46" duration="119.90" routeLength="989.52" waitingTime="29.00" waitingCount="2" stopTime="0.00" timeLoss="39.39" rerouteNo="0" devices="tripinfo_flow6.2" vType="typecar" speedFactor="0.90" vaporized=""/>
    <tripinfo id="flow8.2" depart="23.80" departLane="-E11_0" departPos="5.10" departSpeed="0.00" departDelay="0.80" arrival="160.60" arrivalLane="E4_0" arrivalPos="236.40" arrivalSpeed="12.08" duration="136.80" routeLength="1474.04" waitingTime="0.00" waitingCount="0" stopTime="0.00" timeLoss="13.64" rerouteNo="0" devices="tripinfo_flow8.2" vType="typecar" speedFactor="0.87" vaporized=""/>
    <tripinfo id="flow1.7" depart="47.50" departLane="E0_0" departPos="5.10" departSpeed="0.00" departDelay="0.00" arrival="160.70" arrivalLane="E5_2" arrivalPos="236.40" arrivalSpeed="13.81" duration="113.20" routeLength="992.21" waitingTime="32.20" waitingCount="2" stopTime="0.00" timeLoss="40.90" rerouteNo="0" devices="tripinfo_flow1.7" vType="typecar" speedFactor="1.00" vaporized=""/>
    <tripinfo id="flow6.7" depart="80.90" departLane="-E9_0" departPos="5.10" departSpeed="0.00" departDelay="0.00" arrival="161.20" arrivalLane="E11_1" arrivalPos="236.40" arrivalSpeed="13.04" duration="80.30" routeLength="992.21" waitingTime="0.00" waitingCount="0" stopTime="0.00" timeLoss="3.63" rerouteNo="0" devices="tripinfo_flow6.7" vType="typecar" speedFactor="0.94" vaporized=""/>
    <tripinfo id="flow5.6" depart="93.00" departLane="-E8_0" departPos="5.10" departSpeed="0.00" departDelay="0.00" arrival="161.20" arrivalLane="E9_2" arrivalPos="236.40" arrivalSpeed="13.82" duration="68.20" routeLength="492.21" waitingTime="23.60" waitingCount="2" stopTime="0.00" timeLoss="32.02" rerouteNo="0" devices="tripinfo_flow5.6" vType="typecar" speedFactor="1.00" vaporized=""/>
    <tripinfo id="flow6.6" depart="73.90" departLane="-E9_0" departPos="5.10" departSpeed="0.00" departDelay="1.80" arrival="161.40" arrivalLane="E11_0" arrivalPos="236.40" arrivalSpeed="12.47" duration="87.50" routeLength="992.21" waitingTime="0.00" waitingCount="0" stopTime="0.00" timeLoss="8.05" rerouteNo="0" devices="tripinfo_flow6.6" vType="typecar" speedFactor="0.91" vaporized=""/>
    <tripinfo id="flow6.3" depart="43.90" departLane="-E9_0" departPos="5.10" departSpeed="0.00" departDelay="0.00" arrival="161.80" arrivalLane="E10_2" arrivalPos="236.40" arrivalSpeed="15.05" duration="117.90" routeLength="989.52" waitingTime="22.80" waitingCount="1" stopTime="0.00" timeLoss="51.51" rerouteNo="0" devices="tripinfo_flow6.3" vType="typecar" speedFactor="1.09" vaporized=""/>
    <tripinfo id="flow2.7" depart="44.90" departLane="E2_0" departPos="5.10" departSpeed="0.00" departDelay="0.00" arrival="162.00" arrivalLane="E5_2" arrivalPos="236.40" arrivalSpeed="14.29" duration="117.10" routeLength="989.52" waitingTime="22.50" waitingCount="1" stopTime="0.00" timeLoss="47.28" rerouteNo="0" devices="tripinfo_flow2.7" vType="typecar" speedFactor="1.04" vaporized=""/>
    <tripinfo id="flow6.4" depart="55.80" departLane="-E9_0" departPos="5.10" departSpeed="0.00" departDelay="0.00" arrival="163.10" arrivalLane="E10_2" arrivalPos="236.40" arrivalSpeed="14.07" duration="107.30" routeLength="989.52" waitingTime="11.30" waitingCount="1" stopTime="0.00" timeLoss="35.99" rerouteNo="0" devices="tripinfo_flow6.4" vType="typecar" speedFactor="1.02" vaporized=""/>
    <tripinfo id="flow2.8" depart="50.30" departLane="E2_0" departPos="5.10" departSpeed="0.00" departDelay="0.00" arrival="163.80" arrivalLane="E4_1" arrivalPos="236.40" arrivalSpeed="12.18" duration="113.50" routeLength="992.21" waitingTime="15.90" waitingCount="1" stopTime="0.00" timeLoss="31.28" rerouteNo="0" devices="tripinfo_flow2.8" vType="typecar" speedFactor="0.88" vaporized=""/>
    <tripinfo id="flow8.5" depart="41.80" departLane="-E11_0" departPos="5.10" departSpeed="0.00" departDelay="0.00" arrival="163.90" arrivalLane="E5_2" arrivalPos="236.40" arrivalSpeed="13.15" duration="122.10" routeLength="1471.35" waitingTime="0.00" waitingCount="0" stopTime="0.00" timeLoss="9.37" rerouteNo="0" devices="tripinfo_flow8.5" vType="typecar" speedFactor="0.96" vaporized=""/>
    <tripinfo id="flow2.12" depart="67.20" departLane="E2_0" departPos="5.10" departSpeed="0.00" departDelay="0.00" arrival="165.10" arrivalLane="E4_1" arrivalPos="236.40" arrivalSpeed="14.05" duration="97.90" routeLength="992.21" waitingTime="2.50" waitingCount="1" stopTime="0.00" timeLoss="26.93" rerouteNo="0" devices="tripinfo_flow2.12" vType="typecar" speedFactor="1.02" vaporized=""/>
    <tripinfo id="flow2.14" depart="72.60" departLane="E2_0" departPos="5.10" departSpeed="0.00" departDelay="0.00" arrival="166.80" arrivalLane="E5_2" arrivalPos="236.40" arrivalSpeed="12.62" duration="94.20" routeLength="989.52" waitingTime="0.00" waitingCount="0" stopTime="0.00" timeLoss="14.93" rerouteNo="0" devices="tripinfo_flow2.14" vType="typecar" speedFactor="0.91" vaporized=""/>
    <tripinfo id="flow2.15" depart="80.70" departLane="E2_0" departPos="5.10" departSpeed="0.00" departDelay="0.00" arrival="168.10" arrivalLane="E5_2" arrivalPos="236.40" arrivalSpeed="13.43" duration="87.40" routeLength="989.52" waitingTime="0.00" waitingCount="0" stopTime="0.00" timeLoss="12.95" rerouteNo="0" devices="tripinfo_flow2.15" vType="typecar" speedFactor="0.97" vaporized=""/>
    <tripinfo id="flow6.9" depart="96.90" departLane="-E9_0" departPos="5.10" departSpeed="0.00" departDelay="0.00" arrival="174.40" arrivalLane="E11_0" arrivalPos="236.40" arrivalSpeed="13.54" duration="77.50" routeLength="992.21" waitingTime="0.00" waitingCount="0" stopTime="0.00" timeLoss="3.68" rerouteNo="0" devices="tripinfo_flow6.9" vType="typecar" speedFactor="0.98" vaporized=""/>
    <tripinfo id="flow3.4" depart="26.00" departLane="-E5_0" departPos="5.10" departSpeed="0.00" departDelay="0.00" arrival="190.10" arrivalLane="E11_0" arrivalPos="236.40" arrivalSpeed="13.05" duration="164.10" routeLength="1476.73" waitingTime="42.60" waitingCount="1" stopTime="0.00" timeLoss="51.26" rerouteNo="0" devices="tripinfo_flow3.4" vType="typecar" speedFactor="0.95" vaporized=""/>
    <tripinfo id="flow3.9" depart="63.90" departLane="-E5_0" departPos="5.10" departSpeed="0.00" departDelay="0.00" arrival="191.90" arrivalLane="E10_2" arrivalPos="236.40" arrivalSpeed="14.94" duration="128.00" routeLength="1474.04" waitingTime="7.10" waitingCount="1" stopTime="0.00" timeLoss="28.74" rerouteNo="0" devices="tripinfo_flow3.9" vType="typecar" speedFactor="1.08" vaporized=""/>
    <tripinfo id="flow4.5" depart="94.10" departLane="-E4_0" departPos="5.10" departSpeed="0.00" departDelay="0.00" arrival="192.90" arrivalLane="-E2_0" arrivalPos="236.40" arrivalSpeed="14.01" duration="98.80" routeLength="976.73" waitingTime="20.30" waitingCount="1" stopTime="0.00" timeLoss="28.91" rerouteNo="0" devices="tripinfo_flow4.5" vType="typecar" speedFactor="1.02" vaporized=""/>
    <tripinfo id="flow1.10" depart="82.00" departLane="E0_0" departPos="5.10" departSpeed="0.00" departDelay="0.00" arrival="193.90" arrivalLane="E4_0" arrivalPos="236.40" arrivalSpeed="13.58" duration="111.90" routeLength="994.90" waitingTime="31.60" waitingCount="1" stopTime="0.00" timeLoss="39.17" rerouteNo="0" devices="tripinfo_flow1.10" vType="typecar" speedFactor="0.98" vaporized=""/>
    <tripinfo id="flow1.9" depart="70.90" departLane="E0_0" departPos="5.10" departSpeed="0.00" departDelay="0.00" arrival="198.20" arrivalLane="E5_2" arrivalPos="236.40" arrivalSpeed="12.87" duration="127.30" routeLength="992.21" waitingTime="42.40" waitingCount="1" stopTime="0.00" timeLoss="50.42" rerouteNo="0" devices="tripinfo_flow1.9" vType="typecar" speedFactor="0.94" vaporized=""/>
    <tripinfo id="flow3.12" depart="95.60" departLane="-E5_0" departPos="5.10" departSpeed="0.00" departDelay="0.00" arrival="200.00" arrivalLane="E9_1" arrivalPos="236.40" arrivalSpeed="15.94" duration="104.40" routeLength="994.90" waitingTime="33.40" waitingCount="1" stopTime="0.00" timeLoss="41.99" rerouteNo="0" devices="tripinfo_flow3.12" vType="typecar" speedFactor="1.15" vaporized=""/>
    <tripinfo id="flow5.4" depart="64.00" departLane="-E8_0" departPos="5.10" departSpeed="0.00" departDelay="0.00" arrival="200.40" arrivalLane="-E2_1" arrivalPos="236.40" arrivalSpeed="15.51" duration="136.40" routeLength="1476.73" waitingTime="27.80" waitingCount="2" stopTime="0.00" timeLoss="40.74" rerouteNo="0" devices="tripinfo_flow5.4" vType="typecar" speedFactor="1.12" vaporized=""/>
    <tripinfo id="flow1.12" depart="121.90" departLane="E0_0" departPos="5.10" departSpeed="0.00" departDelay="0.00" arrival="200.60" arrivalLane="E11_0" arrivalPos="236.40" arrivalSpeed="15.15" duration="78.70" routeLength="958.56" waitingTime="1.30" waitingCount="1" stopTime="0.00" timeLoss="14.43" rerouteNo="0" devices="tripinfo_flow1.12" vType="typecar" speedFactor="1.10" vaporized=""/>
    <tripinfo id="flow1.8" depart="57.10" departLane="E0_0" departPos="5.10" departSpeed="0.00" departDelay="0.00" arrival="201.80" arrivalLane="E9_1" arrivalPos="236.40" arrivalSpeed="15.19" duration="144.70" routeLength="1476.73" waitingTime="26.20" waitingCount="2" stopTime="0.00" timeLoss="46.97" rerouteNo="0" devices="tripinfo_flow1.8" vType="typecar" speedFactor="1.10" vaporized=""/>
    <tripinfo id="flow4.4" depart="75.30" departLane="-E4_0" departPos="5.10" departSpeed="0.00" departDelay="0.00" arrival="203.80" arrivalLane="E9_1" arrivalPos="236.40" arrivalSpeed="14.36" duration="128.50" routeLength="992.21" waitingTime="48.10" waitingCount="2" stopTime="0.00" timeLoss="59.15" rerouteNo="0" devices="tripinfo_flow4.4" vType="typecar" speedFactor="1.04" vaporized=""/>
    <tripinfo id="flow5.7" depart="105.50" departLane="-E8_0" departPos="5.10" departSpeed="0.00" departDelay="0.00" arrival="204.00" arrivalLane="E5_1" arrivalPos="236.40" arrivalSpeed="12.34" duration="98.50" routeLength="976.73" waitingTime="4.50" waitingCount="2" stopTime="0.00" timeLoss="18.81" rerouteNo="0" devices="tripinfo_flow5.7" vType="typecar" speedFactor="0.89" vaporized=""/>
    <tripinfo id="flow6.5" depart="71.90" departLane="-E9_0" departPos="5.10" departSpeed="0.00" departDelay="0.00" arrival="204.20" arrivalLane="E5_0" arrivalPos="236.40" arrivalSpeed="12.24" duration="132.30" routeLength="994.90" waitingTime="44.50" waitingCount="1" stopTime="0.00" timeLoss="51.06" rerouteNo="0" devices="tripinfo_flow6.5" vType="typecar" speedFactor="0.88" vaporized=""/>
    <tripinfo id="flow3.10" depart="85.70" departLane="-E5_0" departPos="5.10" departSpeed="0.00" departDelay="0.00" arrival="204.20" arrivalLane="E8_2" arrivalPos="236.40" arrivalSpeed="15.06" duration="118.50" routeLength="992.21" waitingTime="43.00" waitingCount="2" stopTime="0.00" timeLoss="52.14" rerouteNo="0" devices="tripinfo_flow3.10" vType="typecar" speedFactor="1.09" vaporized=""/>
    <tripinfo id="flow7.4" depart="51.60" departLane="-E10_0" departPos="5.10" departSpeed="0.00" departDelay="0.00" arrival="204.60" arrivalLane="-E0_2" arrivalPos="236.40" arrivalSpeed="11.78" duration="153.00" routeLength="992.21" waitingTime="59.30" waitingCount="2" stopTime="0.00" timeLoss="68.68" rerouteNo="0" devices="tripinfo_flow7.4" vType="typecar" speedFactor="0.85" vaporized=""/>