<?xml version="1.0" encoding="UTF-8"?>

<!-- generated on 2025-10-15 05:00:40 by Eclipse SUMO sumo Version 1.24.0
<sumoConfiguration xmlns:xsi="http://www.w3.org/2001/XMLSchema-instance" xsi:noNamespaceSchemaLocation="http://sumo.dlr.de/xsd/sumoConfiguration.xsd">

    <input>
        <net-file value="./sumo_data/road.net.xml"/>
        <route-files value="./sumo_data/road_Lbd0.10.rou.xml"/>
    </input>

    <output>
        <tripinfo-output value="./sumo_data/tripinfo_Lbd0.10.xml"/>
    </output>

    <time>
        <begin value="0"/>
        <step-length value="0.1"/>
    </time>

    <traci_server>
        <remote-port value="53571"/>
    </traci_server>

</sumoConfiguration>
-->

<tripinfos xmlns:xsi="http://www.w3.org/2001/XMLSchema-instance" xsi:noNamespaceSchemaLocation="http://sumo.dlr.de/xsd/tripinfo_file.xsd">
    <tripinfo id="flow7.1" depart="18.50" departLane="-E10_0" departPos="5.10" departSpeed="0.00" departDelay="0.00" arrival="58.40" arrivalLane="E11_2" arrivalPos="236.40" arrivalSpeed="13.74" duration="39.90" routeLength="492.21" waitingTime="0.00" waitingCount="0" stopTime="0.00" timeLoss="3.66" rerouteNo="0" devices="tripinfo_flow7.1" vType="typecar" speedFactor="1.00" vaporized=""/>
    <tripinfo id="flow1.0" depart="53.80" departLane="E0_0" departPos="5.10" departSpeed="0.00" departDelay="0.00" arrival="93.20" arrivalLane="-E2_2" arrivalPos="236.40" arrivalSpeed="14.00" duration="39.40" routeLength="492.21" waitingTime="0.00" waitingCount="0" stopTime="0.00" timeLoss="3.77" rerouteNo="0" devices="tripinfo_flow1.0" vType="typecar" speedFactor="1.01" vaporized=""/>
    <tripinfo id="flow0.0" depart="1.70" departLane="-E11_0" departPos="5.10" departSpeed="0.00" departDelay="0.00" arrival="94.50" arrivalLane="E8_0" arrivalPos="236.40" arrivalSpeed="16.57" duration="92.80" routeLength="994.90" waitingTime="24.50" waitingCount="1" stopTime="0.00" timeLoss="33.13" rerouteNo="0" devices="tripinfo_flow0.0" vType="typecar" speedFactor="1.20" vaporized=""/>
    <tripinfo id="flow2.0" depart="20.50" departLane="E2_0" departPos="5.10" departSpeed="0.00" departDelay="0.00" arrival="125.90" arrivalLane="E9_0" arrivalPos="236.40" arrivalSpeed="14.92" duration="105.40" routeLength="1474.04" waitingTime="0.00" waitingCount="0" stopTime="0.00" timeLoss="5.64" rerouteNo="0" devices="tripinfo_flow2.0" vType="typecar" speedFactor="1.08" vaporized=""/>
    <tripinfo id="flow3.2" depart="109.50" departLane="-E5_0" departPos="5.10" departSpeed="0.00" departDelay="0.00" arrival="152.90" arrivalLane="E4_2" arrivalPos="236.40" arrivalSpeed="12.45" duration="43.40" routeLength="492.21" waitingTime="0.00" waitingCount="0" stopTime="0.00" timeLoss="3.32" rerouteNo="0" devices="tripinfo_flow3.2" vType="typecar" speedFactor="0.90" vaporized=""/>
    <tripinfo id="flow7.2" depart="72.80" departLane="-E10_0" departPos="5.10" departSpeed="0.00" departDelay="0.00" arrival="156.70" arrivalLane="E8_0" arrivalPos="236.40" arrivalSpeed="14.03" duration="83.90" routeLength="976.73" waitingTime="5.20" waitingCount="1" stopTime="0.00" timeLoss="14.04" rerouteNo="0" devices="tripinfo_flow7.2" vType="typecar" speedFactor="1.02" vaporized=""/>
    <tripinfo id="flow7.0" depart="11.80" departLane="-E10_0" departPos="5.10" departSpeed="0.00" departDelay="0.00" arrival="159.80" arrivalLane="E4_0" arrivalPos="236.40" arrivalSpeed="11.70" duration="148.00" routeLength="1476.73" waitingTime="12.00" waitingCount="1" stopTime="0.00" timeLoss="20.92" rerouteNo="0" devices="tripinfo_flow7.0" vType="typecar" speedFactor="0.84" vaporized=""/>
    <tripinfo id="flow0.1" depart="85.00" departLane="-E9_0" departPos="5.10" departSpeed="0.00" departDelay="0.00" arrival="171.60" arrivalLane="E11_0" arrivalPos="236.40" arrivalSpeed="12.70" duration="86.60" routeLength="992.21" waitingTime="2.20" waitingCount="1" stopTime="0.00" timeLoss="8.45" rerouteNo="0" devices="tripinfo_flow0.1" vType="typecar" speedFactor="0.92" vaporized=""/>
    <tripinfo id="flow3.1" depart="100.80" departLane="-E5_0" departPos="5.10" departSpeed="0.00" departDelay="0.00" arrival="179.00" arrivalLane="-E0_0" arrivalPos="236.40" arrivalSpeed="13.33" duration="78.20" routeLength="976.73" waitingTime="0.00" waitingCount="0" stopTime="0.00" timeLoss="4.32" rerouteNo="0" devices="tripinfo_flow3.1" vType="typecar" speedFactor="0.96" vaporized=""/>
    <tripinfo id="flow3.0" depart="47.10" departLane="-E5_0" departPos="5.10" departSpeed="0.00" departDelay="0.00" arrival="184.00" arrivalLane="E11_0" arrivalPos="236.40" arrivalSpeed="13.94" duration="136.90" routeLength="1476.73" waitingTime="22.30" waitingCount="1" stopTime="0.00" timeLoss="31.02" rerouteNo="0" devices="tripinfo_flow3.0" vType="typecar" speedFactor="1.01" vaporized=""/>
    <tripinfo id="flow6.0" depart="123.10" departLane="-E9_0" departPos="5.10" departSpeed="0.00" departDelay="0.00" arrival="240.90" arrivalLane="E5_0" arrivalPos="236.40" arrivalSpeed="13.19" duration="117.80" routeLength="994.90" waitingTime="35.60" waitingCount="1" stopTime="0.00" timeLoss="42.42" rerouteNo="0" devices="tripinfo_flow6.0" vType="typecar" speedFactor="0.95" vaporized=""/>
    <tripinfo id="flow4.1" depart="179.80" departLane="-E4_0" departPos="5.10" departSpeed="0.00" departDelay="0.00" arrival="245.10" arrivalLane="E5_0" arrivalPos="236.40" arrivalSpeed="14.41" duration="65.30" routeLength="476.73" waitingTime="25.00" waitingCount="1" stopTime="0.00" timeLoss="31.54" rerouteNo="0" devices="tripinfo_flow4.1" vType="typecar" speedFactor="1.04" vaporized=""/>
    <tripinfo id="flow1.3" depart="174.30" departLane="E0_0" departPos="5.10" departSpeed="0.00" departDelay="1.10" arrival="246.10" arrivalLane="-E2_2" arrivalPos="236.40" arrivalSpeed="14.16" duration="71.80" routeLength="492.21" waitingTime="30.20" waitingCount="1" stopTime="0.00" timeLoss="36.79" rerouteNo="0" devices="tripinfo_flow1.3" vType="typecar" speedFactor="1.03" vaporized=""/>
    <tripinfo id="flow4.0" depart="125.00" departLane="-E4_0" departPos="5.10" departSpeed="0.00" departDelay="0.00" arrival="246.30" arrivalLane="E11_0" arrivalPos="236.40" arrivalSpeed="14.38" duration="121.30" routeLength="1474.04" waitingTime="8.20" waitingCount="1" stopTime="0.00" timeLoss="18.23" rerouteNo="0" devices="tripinfo_flow4.0" vType="typecar" speedFactor="1.04" vaporized=""/>
    <tripinfo id="flow5.0" depart="208.70" departLane="-E8_0" departPos="5.10" departSpeed="0.00" departDelay="0.00" arrival="247.50" arrivalLane="E9_2" arrivalPos="236.40" arrivalSpeed="14.28" duration="38.80" routeLength="492.21" waitingTime="0.00" waitingCount="0" stopTime="0.00" timeLoss="3.85" rerouteNo="0" devices="tripinfo_flow5.0" vType="typecar" speedFactor="1.03" vaporized=""/>
    <tripinfo id="flow1.1" depart="82.70" departLane="E0_0" departPos="5.10" departSpeed="0.00" departDelay="0.00" arrival="256.80" arrivalLane="E5_1" arrivalPos="236.40" arrivalSpeed="10.63" duration="174.10" routeLength="992.21" waitingTime="71.00" waitingCount="3" stopTime="0.00" timeLoss="81.21" rerouteNo="0" devices="tripinfo_flow1.1" vType="typecar" speedFactor="0.78" vaporized=""/>
    <tripinfo id="flow3.3" depart="156.20" departLane="-E5_0" departPos="5.10" departSpeed="0.00" departDelay="0.00" arrival="268.60" arrivalLane="E10_2" arrivalPos="236.40" arrivalSpeed="15.13" duration="112.40" routeLength="1474.04" waitingTime="4.10" waitingCount="1" stopTime="0.00" timeLoss="14.28" rerouteNo="0" devices="tripinfo_flow3.3" vType="typecar" speedFactor="1.10" vaporized=""/>
    <tripinfo id="flow0.2" depart="189.40" departLane="-E4_0" departPos="5.10" departSpeed="0.00" departDelay="0.00" arrival="282.80" arrivalLane="-E0_0" arrivalPos="236.40" arrivalSpeed="14.00" duration="93.40" routeLength="994.90" waitingTime="14.40" waitingCount="1" stopTime="0.00" timeLoss="22.33" rerouteNo="0" devices="tripinfo_flow0.2" vType="typecar" speedFactor="1.01" vaporized=""/>
    <tripinfo id="flow4.2" depart="200.40" departLane="-E4_0" departPos="5.10" departSpeed="0.00" departDelay="0.00" arrival="285.70" arrivalLane="-E0_0" arrivalPos="236.40" arrivalSpeed="13.49" duration="85.30" routeLength="994.90" waitingTime="0.40" waitingCount="1" stopTime="0.00" timeLoss="11.78" rerouteNo="0" devices="tripinfo_flow4.2" vType="typecar" speedFactor="0.98" vaporized=""/>
    <tripinfo id="flow8.0" depart="169.40" departLane="-E11_0" departPos="5.10" departSpeed="0.00" departDelay="0.00" arrival="335.60" arrivalLane="E4_0" arrivalPos="236.40" arrivalSpeed="14.90" duration="166.20" routeLength="1474.04" waitingTime="49.30" waitingCount="4" stopTime="0.00" timeLoss="66.95" rerouteNo="0" devices="tripinfo_flow8.0" vType="typecar" speedFactor="1.08" vaporized=""/>
    <tripinfo id="flow8.2" depart="258.90" departLane="-E11_0" departPos="5.10" departSpeed="0.00" departDelay="1.10" arrival="339.70" arrivalLane="E10_0" arrivalPos="236.40" arrivalSpeed="12.14" duration="80.80" routeLength="476.73" waitingTime="30.70" waitingCount="1" stopTime="0.00" timeLoss="40.70" rerouteNo="0" devices="tripinfo_flow8.2" vType="typecar" speedFactor="0.87" vaporized=""/>
    <tripinfo id="flow1.2" depart="172.30" departLane="E0_0" departPos="5.10" departSpeed="0.00" departDelay="0.00" arrival="341.00" arrivalLane="E5_1" arrivalPos="236.40" arrivalSpeed="11.12" duration="168.70" routeLength="992.21" waitingTime="70.50" waitingCount="2" stopTime="0.00" timeLoss="79.12" rerouteNo="0" devices="tripinfo_flow1.2" vType="typecar" speedFactor="0.80" vaporized=""/>
    <tripinfo id="flow3.4" depart="210.50" departLane="-E5_0" departPos="5.10" departSpeed="0.00" departDelay="0.00" arrival="369.60" arrivalLane="E10_2" arrivalPos="236.40" arrivalSpeed="13.31" duration="159.10" routeLength="1474.04" waitingTime="38.20" waitingCount="1" stopTime="0.00" timeLoss="47.20" rerouteNo="0" devices="tripinfo_flow3.4" vType="typecar" speedFactor="0.96" vaporized=""/>
    <tripinfo id="flow5.2" depart="286.10" departLane="-E8_0" departPos="5.10" departSpeed="0.00" departDelay="0.00" arrival="379.10" arrivalLane="E4_0" arrivalPos="236.40" arrivalSpeed="15.46" duration="93.00" routeLength="958.56" waitingTime="13.80" waitingCount="2" stopTime="0.00" timeLoss="30.16" rerouteNo="0" devices="tripinfo_flow5.2" vType="typecar" speedFactor="1.12" vaporized=""/>
    <tripinfo id="flow5.1" depart="269.00" departLane="-E8_0" departPos="5.10" departSpeed="0.00" departDelay="0.00" arrival="389.20" arrivalLane="E5_0" arrivalPos="236.40" arrivalSpeed="10.39" duration="120.20" routeLength="976.73" waitingTime="20.80" waitingCount="1" stopTime="0.00" timeLoss="26.19" rerouteNo="0" devices="tripinfo_flow5.1" vType="typecar" speedFactor="0.76" vaporized=""/>
    <tripinfo id="flow6.2" depart="335.00" departLane="-E9_0" departPos="5.10" departSpeed="0.00" departDelay="0.00" arrival="425.40" arrivalLane="E10_2" arrivalPos="236.40" arrivalSpeed="14.96" duration="90.40" routeLength="989.52" waitingTime="8.40" waitingCount="2" stopTime="0.00" timeLoss="23.31" rerouteNo="0" devices="tripinfo_flow6.2" vType="typecar" speedFactor="1.08" vaporized=""/>
    <tripinfo id="flow6.1" depart="314.70" departLane="-E9_0" departPos="5.10" departSpeed="0.00" departDelay="0.00" arrival="425.50" arrivalLane="E11_0" arrivalPos="236.40" arrivalSpeed="15.07" duration="110.80" routeLength="992.21" waitingTime="33.50" waitingCount="2" stopTime="0.00" timeLoss="44.82" rerouteNo="0" devices="tripinfo_flow6.1" vType="typecar" speedFactor="1.09" vaporized=""/>
    <tripinfo id="flow8.3" depart="303.40" departLane="-E11_0" departPos="5.10" departSpeed="0.00" departDelay="0.00" arrival="427.40" arrivalLane="E4_0" arrivalPos="236.40" arrivalSpeed="13.43" duration="124.00" routeLength="1474.04" waitingTime="3.80" waitingCount="1" stopTime="0.00" timeLoss="13.10" rerouteNo="0" devices="tripinfo_flow8.3" vType="typecar" speedFactor="0.97" vaporized=""/>
    <tripinfo id="flow8.1" depart="256.90" departLane="-E11_0" departPos="5.10" departSpeed="0.00" departDelay="0.00" arrival="428.90" arrivalLane="E8_0" arrivalPos="236.40" arrivalSpeed="12.27" duration="172.00" routeLength="994.90" waitingTime="81.80" waitingCount="2" stopTime="0.00" timeLoss="91.82" rerouteNo="0" devices="tripinfo_flow8.1" vType="typecar" speedFactor="0.89" vaporized=""/>
    <tripinfo id="flow1.4" depart="297.70" departLane="E0_0" departPos="5.10" departSpeed="0.00" departDelay="0.00" arrival="429.20" arrivalLane="E4_0" arrivalPos="236.40" arrivalSpeed="12.25" duration="131.50" routeLength="994.90" waitingTime="44.10" waitingCount="1" stopTime="0.00" timeLoss="50.74" rerouteNo="0" devices="tripinfo_flow1.4" vType="typecar" speedFactor="0.89" vaporized=""/>
    <tripinfo id="flow4.3" depart="247.00" departLane="-E4_0" departPos="5.10" departSpeed="0.00" departDelay="0.00" arrival="429.80" arrivalLane="E10_2" arrivalPos="236.40" arrivalSpeed="12.47" duration="182.80" routeLength="1471.35" waitingTime="47.50" waitingCount="2" stopTime="0.00" timeLoss="63.63" rerouteNo="0" devices="tripinfo_flow4.3" vType="typecar" speedFactor="0.91" vaporized=""/>
    <tripinfo id="flow7.3" depart="429.60" departLane="-E10_0" departPos="5.10" departSpeed="0.00" departDelay="0.00" arrival="473.00" arrivalLane="E11_2" arrivalPos="236.40" arrivalSpeed="12.43" duration="43.40" routeLength="492.21" waitingTime="0.00" waitingCount="0" stopTime="0.00" timeLoss="3.26" rerouteNo="0" devices="tripinfo_flow7.3" vType="typecar" speedFactor="0.90" vaporized=""/>
    <tripinfo id="flow6.3" depart="412.20" departLane="-E9_0" departPos="5.10" departSpeed="0.00" departDelay="0.00" arrival="509.40" arrivalLane="E4_0" arrivalPos="236.40" arrivalSpeed="13.57" duration="97.20" routeLength="976.73" waitingTime="16.90" waitingCount="1" stopTime="0.00" timeLoss="25.17" rerouteNo="0" devices="tripinfo_flow6.3" vType="typecar" speedFactor="0.99" vaporized=""/>
    <tripinfo id="flow1.5" depart="417.20" departLane="E0_0" departPos="5.10" departSpeed="0.00" departDelay="0.00" arrival="516.50" arrivalLane="E5_2" arrivalPos="236.40" arrivalSpeed="13.97" duration="99.30" routeLength="992.21" waitingTime="21.20" waitingCount="1" stopTime="0.00" timeLoss="27.71" rerouteNo="0" devices="tripinfo_flow1.5" vType="typecar" speedFactor="1.01" vaporized=""/>
    <tripinfo id="flow3.5" depart="456.80" departLane="-E5_0" departPos="5.10" departSpeed="0.00" departDelay="0.00" arrival="561.00" arrivalLane="E9_0" arrivalPos="236.40" arrivalSpeed="14.78" duration="104.20" routeLength="994.90" waitingTime="29.20" waitingCount="1" stopTime="0.00" timeLoss="36.98" rerouteNo="0" devices="tripinfo_flow3.5" vType="typecar" speedFactor="1.07" vaporized=""/>
    <tripinfo id="flow2.1" depart="396.00" departLane="E2_0" departPos="5.10" departSpeed="0.00" departDelay="0.00" arrival="562.80" arrivalLane="E8_2" arrivalPos="236.40" arrivalSpeed="12.99" duration="166.80" routeLength="1471.35" waitingTime="39.30" waitingCount="3" stopTime="0.00" timeLoss="51.95" rerouteNo="0" devices="tripinfo_flow2.1" vType="typecar" speedFactor="0.94" vaporized=""/>
    <tripinfo id="flow1.6" depart="429.40" departLane="E0_0" departPos="5.10" departSpeed="0.00" departDelay="0.00" arrival="563.30" arrivalLane="E11_0" arrivalPos="236.40" arrivalSpeed="11.55" duration="133.90" routeLength="958.56" waitingTime="42.30" waitingCount="1" stopTime="0.00" timeLoss="49.50" rerouteNo="0" devices="tripinfo_flow1.6" vType="typecar" speedFactor="0.83" vaporized=""/>
    <tripinfo id="flow8.4" depart="482.00" departLane="-E11_0" departPos="5.10" departSpeed="0.00" departDelay="0.00" arrival="563.70" arrivalLane="-E0_2" arrivalPos="236.40" arrivalSpeed="12.83" duration="81.70" routeLength="989.52" waitingTime="0.00" waitingCount="0" stopTime="0.00" timeLoss="4.06" rerouteNo="0" devices="tripinfo_flow8.4" vType="typecar" speedFactor="0.93" vaporized=""/>
    <tripinfo id="flow5.3" depart="431.90" departLane="-E8_0" departPos="5.10" departSpeed="0.00" departDelay="0.00" arrival="599.10" arrivalLane="-E2_0" arrivalPos="236.40" arrivalSpeed="12.51" duration="167.20" routeLength="1476.73" waitingTime="40.80" waitingCount="1" stopTime="0.00" timeLoss="48.99" rerouteNo="0" devices="tripinfo_flow5.3" vType="typecar" speedFactor="0.91" vaporized=""/>
    <tripinfo id="flow3.6" depart="523.20" departLane="-E5_0" departPos="5.10" departSpeed="0.00" departDelay="0.00" arrival="606.60" arrivalLane="-E2_0" arrivalPos="236.40" arrivalSpeed="13.12" duration="83.40" routeLength="958.56" waitingTime="1.80" waitingCount="1" stopTime="0.00" timeLoss="9.28" rerouteNo="0" devices="tripinfo_flow3.6" vType="typecar" speedFactor="0.95" vaporized=""/>
    <tripinfo id="flow6.4" depart="477.10" departLane="-E9_0" departPos="5.10" departSpeed="0.00" departDelay="0.00" arrival="608.50" arrivalLane="E10_2" arrivalPos="236.40" arrivalSpeed="12.45" duration="131.40" routeLength="989.52" waitingTime="42.20" waitingCount="2" stopTime="0.00" timeLoss="50.77" rerouteNo="0" devices="tripinfo_flow6.4" vType="typecar" speedFactor="0.90" vaporized=""/>
    <tripinfo id="flow5.4" depart="499.60" departLane="-E8_0" departPos="5.10" departSpeed="0.00" departDelay="0.00" arrival="611.90" arrivalLane="E11_0" arrivalPos="236.40" arrivalSpeed="10.65" duration="112.30" routeLength="994.90" waitingTime="13.60" waitingCount="1" stopTime="0.00" timeLoss="19.33" rerouteNo="0" devices="tripinfo_flow5.4" vType="typecar" speedFactor="0.77" vaporized=""/>
    <tripinfo id="flow1.7" depart="529.50" departLane="E0_0" departPos="5.10" departSpeed="0.00" departDelay="0.00" arrival="643.30" arrivalLane="E5_2" arrivalPos="236.40" arrivalSpeed="14.07" duration="113.80" routeLength="992.21" waitingTime="35.00" waitingCount="1" stopTime="0.00" timeLoss="43.15" rerouteNo="0" devices="tripinfo_flow1.7" vType="typecar" speedFactor="1.02" vaporized=""/>
    <tripinfo id="flow5.5" depart="605.70" departLane="-E8_0" departPos="5.10" departSpeed="0.00" departDelay="0.00" arrival="644.00" arrivalLane="E9_2" arrivalPos="236.40" arrivalSpeed="14.49" duration="38.30" routeLength="492.21" waitingTime="0.00" waitingCount="0" stopTime="0.00" timeLoss="3.85" rerouteNo="0" devices="tripinfo_flow5.5" vType="typecar" speedFactor="1.05" vaporized=""/>
    <tripinfo id="flow7.4" depart="560.80" departLane="-E10_0" departPos="5.10" departSpeed="0.00" departDelay="0.00" arrival="649.00" arrivalLane="-E0_2" arrivalPos="236.40" arrivalSpeed="16.48" duration="88.20" routeLength="992.21" waitingTime="19.80" waitingCount="1" stopTime="0.00" timeLoss="27.52" rerouteNo="0" devices="tripinfo_flow7.4" vType="typecar" speedFactor="1.19" vaporized=""/>
    <tripinfo id="flow8.5" depart="555.50" departLane="-E11_0" departPos="5.10" departSpeed="0.00" departDelay="0.00" arrival="651.00" arrivalLane="-E2_0" arrivalPos="236.40" arrivalSpeed="14.73" duration="95.50" routeLength="992.21" waitingTime="14.60" waitingCount="3" stopTime="0.00" timeLoss="28.20" rerouteNo="0" devices="tripinfo_flow8.5" vType="typecar" speedFactor="1.07" vaporized=""/>
    <tripinfo id="flow0.3" depart="603.70" departLane="E0_0" departPos="5.10" departSpeed="0.00" departDelay="0.00" arrival="668.50" arrivalLane="E10_0" arrivalPos="236.40" arrivalSpeed="16.40" duration="64.80" routeLength="976.73" waitingTime="0.00" waitingCount="0" stopTime="0.00" timeLoss="5.05" rerouteNo="0" devices="tripinfo_flow0.3" vType="typecar" speedFactor="1.19" vaporized=""/>
    <tripinfo id="flow6.5" depart="616.00" departLane="-E9_0" departPos="5.10" departSpeed="0.00" departDelay="0.00" arrival="686.60" arrivalLane="E5_0" arrivalPos="236.40" arrivalSpeed="14.69" duration="70.60" routeLength="994.90" waitingTime="0.00" waitingCount="0" stopTime="0.00" timeLoss="3.42" rerouteNo="0" devices="tripinfo_flow6.5" vType="typecar" speedFactor="1.07" vaporized=""/>
    <tripinfo id="flow2.2" depart="643.50" departLane="E2_0" departPos="5.10" departSpeed="0.00" departDelay="0.00" arrival="739.40" arrivalLane="E11_0" arrivalPos="236.40" arrivalSpeed="15.20" duration="95.90" routeLength="976.73" waitingTime="24.00" waitingCount="1" stopTime="0.00" timeLoss="31.32" rerouteNo="0" devices="tripinfo_flow2.2" vType="typecar" speedFactor="1.10" vaporized=""/>
    <tripinfo id="flow1.8" depart="585.80" departLane="E0_0" departPos="5.10" departSpeed="0.00" departDelay="0.00" arrival="740.90" arrivalLane="E9_0" arrivalPos="236.40" arrivalSpeed="14.64" duration="155.10" routeLength="1476.73" waitingTime="43.00" waitingCount="2" stopTime="0.00" timeLoss="54.42" rerouteNo="0" devices="tripinfo_flow1.8" vType="typecar" speedFactor="1.06" vaporized=""/>
    <tripinfo id="flow3.7" depart="593.70" departLane="-E5_0" departPos="5.10" departSpeed="0.00" departDelay="0.00" arrival="743.50" arrivalLane="E8_2" arrivalPos="236.40" arrivalSpeed="12.41" duration="149.80" routeLength="992.21" waitingTime="60.10" waitingCount="2" stopTime="0.00" timeLoss="69.60" rerouteNo="0" devices="tripinfo_flow3.7" vType="typecar" speedFactor="0.90" vaporized=""/>
    <tripinfo id="flow4.5" depart="707.30" departLane="-E4_0" departPos="5.10" departSpeed="0.00" departDelay="0.00" arrival="785.70" arrivalLane="E5_0" arrivalPos="236.40" arrivalSpeed="13.72" duration="78.40" routeLength="476.73" waitingTime="36.70" waitingCount="1" stopTime="0.00" timeLoss="43.24" rerouteNo="0" devices="tripinfo_flow4.5" vType="typecar" speedFactor="1.00" vaporized=""/>
    <tripinfo id="flow4.4" depart="672.90" departLane="-E4_0" departPos="5.10" departSpeed="0.00" departDelay="0.00" arrival="787.90" arrivalLane="-E0_0" arrivalPos="236.40" arrivalSpeed="12.96" duration="115.00" routeLength="994.90" waitingTime="32.10" waitingCount="1" stopTime="0.00" timeLoss="38.96" rerouteNo="0" devices="tripinfo_flow4.4" vType="typecar" speedFactor="0.94" vaporized=""/>
    <tripinfo id="flow0.4" depart="740.00" departLane="E2_0" departPos="5.10" departSpeed="0.00" departDelay="0.00" arrival="818.30" arrivalLane="E5_2" arrivalPos="236.40" arrivalSpeed="13.50" duration="78.30" routeLength="989.52" waitingTime="0.00" waitingCount="0" stopTime="0.00" timeLoss="4.26" rerouteNo="0" devices="tripinfo_flow0.4" vType="typecar" speedFactor="0.98" vaporized=""/>
    <tripinfo id="flow1.9" depart="697.20" departLane="E0_0" departPos="5.10" departSpeed="0.00" departDelay="0.00" arrival="832.60" arrivalLane="E9_0" arrivalPos="236.40" arrivalSpeed="13.27" duration="135.40" routeLength="1476.73" waitingTime="13.70" waitingCount="2" stopTime="0.00" timeLoss="24.06" rerouteNo="0" devices="tripinfo_flow1.9" vType="typecar" speedFactor="0.96" vaporized=""/>
    <tripinfo id="flow0.5" depart="759.70" departLane="-E8_0" departPos="5.10" departSpeed="0.00" departDelay="0.00" arrival="835.40" arrivalLane="E5_0" arrivalPos="236.40" arrivalSpeed="13.72" duration="75.70" routeLength="976.73" waitingTime="0.00" waitingCount="0" stopTime="0.00" timeLoss="4.44" rerouteNo="0" devices="tripinfo_flow0.5" vType="typecar" speedFactor="1.00" vaporized=""/>
    <tripinfo id="flow8.7" depart="772.60" departLane="-E11_0" departPos="5.10" departSpeed="0.00" departDelay="0.00" arrival="852.70" arrivalLane="-E2_0" arrivalPos="236.40" arrivalSpeed="12.94" duration="80.10" routeLength="992.21" waitingTime="0.00" waitingCount="0" stopTime="0.00" timeLoss="3.58" rerouteNo="0" devices="tripinfo_flow8.7" vType="typecar" speedFactor="0.94" vaporized=""/>
    <tripinfo id="flow3.8" depart="769.50" departLane="-E5_0" departPos="5.10" departSpeed="0.00" departDelay="0.00" arrival="864.90" arrivalLane="E8_2" arrivalPos="236.40" arrivalSpeed="15.06" duration="95.40" routeLength="992.21" waitingTime="20.60" waitingCount="1" stopTime="0.00" timeLoss="29.42" rerouteNo="0" devices="tripinfo_flow3.8" vType="typecar" speedFactor="1.09" vaporized=""/>
    <tripinfo id="flow4.6" depart="774.20" departLane="-E4_0" departPos="5.10" departSpeed="0.00" departDelay="0.00" arrival="874.60" arrivalLane="-E0_0" arrivalPos="236.40" arrivalSpeed="16.24" duration="100.40" routeLength="994.90" waitingTime="30.90" waitingCount="1" stopTime="0.00" timeLoss="39.20" rerouteNo="0" devices="tripinfo_flow4.6" vType="typecar" speedFactor="1.17" vaporized=""/>
    <tripinfo id="flow8.6" depart="763.50" departLane="-E11_0" departPos="5.10" departSpeed="0.00" departDelay="0.00" arrival="875.00" arrivalLane="E8_0" arrivalPos="236.40" arrivalSpeed="15.82" duration="111.50" routeLength="994.90" waitingTime="40.80" waitingCount="1" stopTime="0.00" timeLoss="49.07" rerouteNo="0" devices="tripinfo_flow8.6" vType="typecar" speedFactor="1.15" vaporized=""/>
    <tripinfo id="flow7.5" depart="772.40" departLane="-E10_0" departPos="5.10" departSpeed="0.00" departDelay="0.00" arrival="877.90" arrivalLane="E9_0" arrivalPos="236.40" arrivalSpeed="13.32" duration="105.50" routeLength="958.56" waitingTime="18.00" waitingCount="2" stopTime="0.00" timeLoss="32.08" rerouteNo="0" devices="tripinfo_flow7.5" vType="typecar" speedFactor="0.96" vaporized=""/>
    <tripinfo id="flow6.7" depart="860.20" departLane="-E9_0" departPos="5.10" departSpeed="0.00" departDelay="0.00" arrival="922.20" arrivalLane="E8_0" arrivalPos="236.40" arrivalSpeed="12.66" duration="62.00" routeLength="476.73" waitingTime="17.80" waitingCount="1" stopTime="0.00" timeLoss="23.81" rerouteNo="0" devices="tripinfo_flow6.7" vType="typecar" speedFactor="0.92" vaporized=""/>
    <tripinfo id="flow0.6" depart="826.60" departLane="-E4_0" departPos="5.10" departSpeed="0.00" departDelay="0.00" arrival="922.50" arrivalLane="E9_0" arrivalPos="236.40" arrivalSpeed="13.33" duration="95.90" routeLength="992.21" waitingTime="10.70" waitingCount="2" stopTime="0.00" timeLoss="20.91" rerouteNo="0" devices="tripinfo_flow0.6" vType="typecar" speedFactor="0.96" vaporized=""/>
    <tripinfo id="flow7.6" depart="818.10" departLane="-E10_0" departPos="5.10" departSpeed="0.00" departDelay="0.00" arrival="926.30" arrivalLane="-E0_2" arrivalPos="236.40" arrivalSpeed="13.13" duration="108.20" routeLength="992.21" waitingTime="23.90" waitingCount="2" stopTime="0.00" timeLoss="32.16" rerouteNo="0" devices="tripinfo_flow7.6" vType="typecar" speedFactor="0.95" vaporized=""/>
    <tripinfo id="flow6.6" depart="748.90" departLane="-E9_0" departPos="5.10" departSpeed="0.00" departDelay="0.00" arrival="927.60" arrivalLane="-E0_2" arrivalPos="236.40" arrivalSpeed="14.32" duration="178.70" routeLength="1471.35" waitingTime="48.60" waitingCount="4" stopTime="0.00" timeLoss="74.37" rerouteNo="0" devices="tripinfo_flow6.6" vType="typecar" speedFactor="1.03" vaporized=""/>
    <tripinfo id="flow8.8" depart="823.60" departLane="-E11_0" departPos="5.10" departSpeed="0.00" departDelay="0.00" arrival="930.10" arrivalLane="-E0_2" arrivalPos="236.40" arrivalSpeed="12.24" duration="106.50" routeLength="989.52" waitingTime="8.90" waitingCount="1" stopTime="0.00" timeLoss="24.61" rerouteNo="0" devices="tripinfo_flow8.8" vType="typecar" speedFactor="0.88" vaporized=""/>
    <tripinfo id="flow1.10" depart="879.20" departLane="E0_0" departPos="5.10" departSpeed="0.00" departDelay="0.00" arrival="950.50" arrivalLane="E11_0" arrivalPos="236.40" arrivalSpeed="14.92" duration="71.30" routeLength="958.56" waitingTime="0.00" waitingCount="0" stopTime="0.00" timeLoss="6.02" rerouteNo="0" devices="tripinfo_flow1.10" vType="typecar" speedFactor="1.08" vaporized=""/>
    <tripinfo id="flow0.7" depart="864.20" departLane="E2_0" departPos="5.10" departSpeed="0.00" departDelay="0.00" arrival="952.70" arrivalLane="E10_0" arrivalPos="236.40" arrivalSpeed="15.47" duration="88.50" routeLength="994.90" waitingTime="16.20" waitingCount="1" stopTime="0.00" timeLoss="24.35" rerouteNo="0" devices="tripinfo_flow0.7" vType="typecar" speedFactor="1.12" vaporized=""/>
    <tripinfo id="flow6.8" depart="879.00" departLane="-E9_0" departPos="5.10" departSpeed="0.00" departDelay="0.00" arrival="966.40" arrivalLane="E11_0" arrivalPos="236.40" arrivalSpeed="12.87" duration="87.40" routeLength="992.21" waitingTime="2.30" waitingCount="1" stopTime="0.00" timeLoss="9.93" rerouteNo="0" devices="tripinfo_flow6.8" vType="typecar" speedFactor="0.93" vaporized=""/>
    <tripinfo id="flow8.9" depart="850.90" departLane="-E11_0" departPos="5.10" departSpeed="0.00" departDelay="0.00" arrival="971.70" arrivalLane="E4_0" arrivalPos="236.40" arrivalSpeed="12.79" duration="120.80" routeLength="1474.04" waitingTime="0.00" waitingCount="0" stopTime="0.00" timeLoss="4.98" rerouteNo="0" devices="tripinfo_flow8.9" vType="typecar" speedFactor="0.93" vaporized=""/>
    <tripinfo id="flow6.9" depart="913.00" departLane="-E9_0" departPos="5.10" departSpeed="0.00" departDelay="0.00" arrival="982.80" arrivalLane="E10_2" arrivalPos="236.40" arrivalSpeed="15.44" duration="69.80" routeLength="989.52" waitingTime="0.00" waitingCount="0" stopTime="0.00" timeLoss="5.13" rerouteNo="0" devices="tripinfo_flow6.9" vType="typecar" speedFactor="1.12" vaporized=""/>
    <tripinfo id="flow7.7" depart="896.70" departLane="-E10_0" departPos="5.10" departSpeed="0.00" departDelay="0.00" arrival="1010.20" arrivalLane="-E2_0" arrivalPos="236.40" arrivalSpeed="15.61" duration="113.50" routeLength="994.90" waitingTime="42.10" waitingCount="1" stopTime="0.00" timeLoss="50.20" rerouteNo="0" devices="tripinfo_flow7.7" vType="typecar" speedFactor="1.13" vaporized=""/>
    <tripinfo id="flow4.7" depart="900.10" departLane="-E4_0" departPos="5.10" departSpeed="0.00" departDelay="0.00" arrival="1057.90" arrivalLane="E10_2" arrivalPos="236.40" arrivalSpeed="12.66" duration="157.80" routeLength="1471.35" waitingTime="28.20" waitingCount="2" stopTime="0.00" timeLoss="40.32" rerouteNo="0" devices="tripinfo_flow4.7" vType="typecar" speedFactor="0.92" vaporized=""/>
    <tripinfo id="flow0.8" depart="988.10" departLane="-E5_0" departPos="5.10" departSpeed="0.00" departDelay="0.00" arrival="1069.80" arrivalLane="-E0_0" arrivalPos="236.40" arrivalSpeed="12.68" duration="81.70" routeLength="976.73" waitingTime="0.00" waitingCount="0" stopTime="0.00" timeLoss="4.28" rerouteNo="0" devices="tripinfo_flow0.8" vType="typecar" speedFactor="0.92" vaporized=""/>